[Molden Format]
[Title]
 Molden file created by orca_2mkl for BaseName=orca

[Atoms] AU
O    1   8          0.0000000000        -0.1238904453         0.0000000000 
H    2   1          1.4304281971         0.9832623020         0.0000000000 
H    3   1         -1.4304281971         0.9832623020         0.0000000000 
[GTO]
  1 0
s   8 1.0 
    15330.0000000000         0.5107820689
     2299.0000000000         0.9520320559
      522.4000000000         1.6143309227
      147.3000000000         2.4433650471
       47.5500000000         3.0486061870
       16.7600000000         2.6183461361
        6.2070000000         1.0052339944
        0.6882000000        -0.0044964733
s   8 1.0 
    15330.0000000000        -0.1936657939
     2299.0000000000        -0.3632249960
      522.4000000000        -0.6192189910
      147.3000000000        -0.9677187516
       47.5500000000        -1.2940243602
       16.7600000000        -1.3817163263
        6.2070000000        -0.8447542687
        0.6882000000         0.5573175589
s   1 1.0 
        1.7520000000         1.0853271534
s   1 1.0 
        0.2384000000         0.2431586819
p   3 1.0 
       34.4600000000         4.8988750613
        7.7490000000         4.7502609215
        2.2800000000         3.2044979545
p   1 1.0 
        0.7156000000         0.9381623559
p   1 1.0 
        0.2140000000         0.2074709543
d   1 1.0 
        2.3140000000        12.3767310624
d   1 1.0 
        0.6450000000         1.3234257612
f   1 1.0 
        1.4280000000        12.7097950062

  2 0
s   3 1.0 
       33.8700000000         0.2551080577
        5.0950000000         0.4600978881
        1.1590000000         0.6784140671
s   1 1.0 
        0.3258000000         0.3073430538
s   1 1.0 
        0.1027000000         0.1292968442
p   1 1.0 
        1.4070000000         2.1842769845
p   1 1.0 
        0.3880000000         0.4364954740
d   1 1.0 
        1.0570000000         3.1412413909

  3 0
s   3 1.0 
       33.8700000000         0.2551080577
        5.0950000000         0.4600978881
        1.1590000000         0.6784140671
s   1 1.0 
        0.3258000000         0.3073430538
s   1 1.0 
        0.1027000000         0.1292968442
p   1 1.0 
        1.4070000000         2.1842769845
p   1 1.0 
        0.3880000000         0.4364954740
d   1 1.0 
        1.0570000000         3.1412413909

[5D]
[7F]
[9G]
[MO]
 Sym=     1a
 Ene= -1.91168546080221E+01
 Spin= Alpha
 Occup= 2.000000
  1       0.971787932194
  2      -0.001851100600
  3       0.051091932398
  4       0.005362413608
  5      -0.000000024615
  6       0.001590934831
  7       0.000000029624
  8       0.000000031461
  9       0.000274447535
 10      -0.000000026764
 11       0.000000010119
 12       0.000851040831
 13      -0.000000002631
 14      -0.000296899856
 15      -0.000000000350
 16       0.000000000533
 17       0.000077968369
 18      -0.000000000469
 19      -0.000046915959
 20       0.000000000144
 21      -0.000000003423
 22       0.000297668319
 23       0.000000010553
 24       0.000000001497
 25      -0.000000001817
 26      -0.000001357675
 27      -0.000000000406
 28       0.000000000006
 29       0.000000000774
 30      -0.000143292146
 31       0.000410517009
 32      -0.001949023926
 33      -0.000371096610
 34       0.000126941468
 35       0.000183964054
 36       0.000000001036
 37       0.000785094705
 38       0.000723314652
 39       0.000000000958
 40       0.000401201011
 41      -0.000000002069
 42      -0.000000001338
 43      -0.000082105712
 44      -0.000807449549
 45       0.000410520527
 46      -0.001948989103
 47      -0.000371097807
 48      -0.000126935008
 49       0.000183959040
 50       0.000000001034
 51      -0.000785078973
 52       0.000723301392
 53       0.000000001012
 54       0.000401199516
 55       0.000000002051
 56      -0.000000001355
 57      -0.000082105833
 58       0.000807446480
 Sym=     1a
 Ene= -1.00664295463806E+00
 Spin= Alpha
 Occup= 2.000000
  1       0.020620636360
  2      -0.482768535806
  3      -0.141082027620
  4      -0.264368334642
  5      -0.000000188956
  6      -0.066414072510
  7       0.000000133993
  8      -0.000000083198
  9      -0.078920319713
 10       0.000000014844
 11      -0.000000161733
 12      -0.016201929431
 13       0.000000271678
 14       0.004339756976
 15       0.000000000219
 16      -0.000000024364
 17      -0.000868771000
 18       0.000000003005
 19       0.008166954998
 20      -0.000000002199
 21      -0.000000023787
 22      -0.000769655995
 23       0.000000017986
 24       0.000000005120
 25      -0.000000002412
 26       0.001281994604
 27       0.000000000716
 28       0.000000000462
 29      -0.000000001462
 30       0.001427935406
 31      -0.096639494856
 32      -0.080574909230
 33      -0.010932372077
 34       0.011344144521
 35       0.007578717101
 36      -0.000000001009
 37       0.011862712520
 38       0.005620447221
 39       0.000000011202
 40       0.001944492908
 41      -0.000000000703
 42      -0.000000000750
 43      -0.001236387920
 44      -0.002797415547
 45      -0.096639331494
 46      -0.080574552362
 47      -0.010932180019
 48      -0.011344160279
 49       0.007578698765
 50      -0.000000001452
 51      -0.011862676299
 52       0.005620438980
 53       0.000000019449
 54       0.001944490766
 55       0.000000001155
 56      -0.000000001105
 57      -0.001236388419
 58       0.002797411947
 Sym=     1a
 Ene= -5.25800556224241E-01
 Spin= Alpha
 Occup= 2.000000
  1       0.000000015877
  2       0.000000279403
  3       0.000000041970
  4      -0.000000104485
  5      -0.298202957476
  6       0.000000065123
  7       0.000000008101
  8      -0.326198097609
  9       0.000000001525
 10       0.000000008359
 11      -0.154310142067
 12      -0.000000075640
 13      -0.000000006829
 14      -0.000000051186
 15      -0.000000075282
 16      -0.000000011156
 17       0.000000018894
 18      -0.011504863120
 19      -0.000000058181
 20      -0.000000132581
 21       0.000000007272
 22       0.000000151912
 23      -0.015101152211
 24      -0.000000000933
 25       0.002348580182
 26      -0.000000003878
 27       0.000000000785
 28      -0.000000011582
 29       0.001128268690
 30      -0.000000008830
 31      -0.150497370799
 32      -0.211626660452
 33      -0.078640626545
 34       0.009409785338
 35       0.013006158311
 36      -0.000000014958
 37       0.013715038399
 38       0.020387023431
 39      -0.000000036919
 40       0.003781220289
 41       0.000000008721
 42       0.000000006616
 43       0.000187112638
 44      -0.006172723441
 45       0.150497638776
 46       0.211627050420
 47       0.078640644797
 48       0.009409774815
 49      -0.013006222009
 50       0.000000015506
 51       0.013715110629
 52      -0.020387092649
 53       0.000000017236
 54      -0.003781228068
 55       0.000000006081
 56      -0.000000006187
 57      -0.000187119382
 58      -0.006172741684
 Sym=     1a
 Ene= -3.82364947800007E-01
 Spin= Alpha
 Occup= 2.000000
  1       0.004498970300
  2      -0.192535408065
  3      -0.060075970188
  4      -0.276312126651
  5       0.000000047679
  6       0.322585188193
  7       0.000000354365
  8       0.000000100615
  9       0.361757653521
 10       0.000000355505
 11      -0.000000044275
 12       0.291917447743
 13       0.000000377726
 14      -0.004305459903
 15       0.000000001687
 16       0.000000096873
 17      -0.003959867423
 18      -0.000000064739
 19      -0.012009463413
 20      -0.000000003689
 21       0.000000156523
 22      -0.014482653397
 23      -0.000000129866
 24      -0.000000010290
 25       0.000000000934
 26      -0.002366965223
 27      -0.000000006993
 28      -0.000000000468
 29       0.000000001254
 30      -0.000698787483
 31       0.087631141931
 32       0.119583581843
 33       0.031258035339
 34      -0.009308914056
 35       0.001340497320
 36       0.000000019097
 37      -0.012885083483
 38       0.021331380587
 39       0.000000062834
 40      -0.001638294808
 41      -0.000000015304
 42      -0.000000002698
 43       0.003613682510
 44       0.000466126827
 45       0.087631262035
 46       0.119583591094
 47       0.031257695799
 48       0.009308953955
 49       0.001340505132
 50       0.000000019057
 51       0.012885074330
 52       0.021331377490
 53       0.000000058151
 54      -0.001638294955
 55       0.000000014193
 56      -0.000000002146
 57       0.003613691506
 58      -0.000466130942
 Sym=     1a
 Ene= -3.06379265198570E-01
 Spin= Alpha
 Occup= 2.000000
  1      -0.000000004016
  2       0.000000335448
  3       0.000000114248
  4      -0.000000049470
  5       0.000000009377
  6      -0.000000300492
  7       0.369955681153
  8       0.000000012339
  9      -0.000000333298
 10       0.421487934179
 11       0.000000158593
 12      -0.000000424532
 13       0.387753274643
 14       0.000000105204
 15      -0.000000063775
 16       0.005324627437
 17       0.000000007142
 18      -0.000000001967
 19       0.000000216211
 20      -0.000000171479
 21       0.018884535474
 22       0.000000004581
 23       0.000000014367
 24      -0.003900265918
 25      -0.000000001334
 26       0.000000013954
 27       0.001133613650
 28      -0.000000000606
 29       0.000000000578
 30       0.000000001521
 31      -0.000000066064
 32       0.000000013000
 33      -0.000000073449
 34       0.000000010389
 35      -0.000000000888
 36       0.010406612938
 37       0.000000004128
 38      -0.000000033408
 39       0.033793460846
 40       0.000000006932
 41      -0.004141160227
 42      -0.002660317800
 43      -0.000000005155
 44       0.000000001935
 45      -0.000000068827
 46       0.000000094382
 47       0.000000404776
 48      -0.000000011758
 49       0.000000000696
 50       0.010406645628
 51       0.000000028986
 52      -0.000000062699
 53       0.033793539010
 54       0.000000004844
 55       0.004141169344
 56      -0.002660332290
 57      -0.000000003798
 58      -0.000000005466
 Sym=     1a
 Ene= 2.77200641493226E-02
 Spin= Alpha
 Occup= 0.000000
  1      -0.019816057520
  2       0.155180649841
  3       0.058360665293
  4       1.247943067672
  5       0.000000303627
  6       0.115279417278
  7       0.000000036482
  8       0.000000373172
  9       0.202474478250
 10      -0.000000035210
 11       0.000000674257
 12       0.383872888091
 13       0.000000241474
 14       0.001290128900
 15      -0.000000000232
 16      -0.000000009796
 17      -0.002576498739
 18       0.000000005903
 19      -0.032376170386
 20      -0.000000000243
 21      -0.000000014866
 22       0.007677359351
 23       0.000000027953
 24      -0.000000001153
 25      -0.000000000506
 26      -0.003237068069
 27       0.000000000956
 28      -0.000000000113
 29      -0.000000002889
 30      -0.005929490812
 31      -0.039335987190
 32      -0.267724011314
 33      -0.817250815459
 34      -0.008906175510
 35      -0.003445247403
 36      -0.000000000299
 37       0.080112350552
 38       0.061390207155
 39       0.000000038543
 40       0.005734107653
 41       0.000000000489
 42      -0.000000000090
 43       0.000294689938
 44      -0.010136428123
 45      -0.039335861033
 46      -0.267723668180
 47      -0.817246965921
 48       0.008906125424
 49      -0.003445212331
 50       0.000000000276
 51      -0.080112370219
 52       0.061390187931
 53       0.000000032787
 54       0.005734108325
 55      -0.000000000548
 56       0.000000000028
 57       0.000294690983
 58       0.010136434499
 Sym=     1a
 Ene= 9.97480819509979E-02
 Spin= Alpha
 Occup= 0.000000
  1       0.000000039736
  2      -0.000000131390
  3      -0.000000059826
  4      -0.000002117263
  5       0.190571024440
  6      -0.000000122070
  7      -0.000000046511
  8       0.248715701564
  9      -0.000000295468
 10      -0.000000054168
 11       0.736106768982
 12      -0.000000629395
 13      -0.000000049757
 14      -0.000000011149
 15      -0.000000010673
 16      -0.000000002349
 17       0.000000009775
 18      -0.003380058738
 19       0.000000042573
 20      -0.000000045401
 21      -0.000000001347
 22       0.000000035397
 23       0.041621203156
 24       0.000000000616
 25      -0.003027064192
 26       0.000000005710
 27      -0.000000000320
 28      -0.000000001371
 29      -0.000131387264
 30       0.000000009055
 31      -0.032926398928
 32      -0.204050468403
 33      -1.545534069635
 34      -0.010386965400
 35      -0.011085571023
 36      -0.000000005501
 37       0.071606373328
 38       0.057552414327
 39       0.000000051025
 40       0.004309502017
 41      -0.000000001581
 42      -0.000000001182
 43      -0.004268090599
 44      -0.006314682460
 45       0.032926485152
 46       0.204051264550
 47       1.545536662075
 48      -0.010386992665
 49       0.011085569118
 50       0.000000002157
 51       0.071606872024
 52      -0.057552653486
 53      -0.000000054006
 54      -0.004309530602
 55      -0.000000002652
 56       0.000000001815
 57       0.004268099913
 58      -0.006314728937
 Sym=     1a
 Ene= 3.71351380234279E-01
 Spin= Alpha
 Occup= 0.000000
  1       0.000000031242
  2       0.000000416657
  3       0.000000109932
  4      -0.000000775389
  5       0.123248446501
  6       0.000000366044
  7       0.000000004429
  8       0.260021056594
  9       0.000000443128
 10       0.000000005104
 11       0.942707379325
 12       0.000000114674
 13       0.000000003797
 14       0.000000011980
 15      -0.000000005469
 16      -0.000000002735
 17      -0.000000020769
 18      -0.024342494015
 19       0.000000084997
 20      -0.000000056861
 21       0.000000002601
 22       0.000000015634
 23       0.081566394577
 24      -0.000000000060
 25      -0.013725405176
 26      -0.000000001574
 27      -0.000000000099
 28       0.000000005312
 29       0.007289359730
 30      -0.000000002008
 31      -0.129583711561
 32      -1.384639898096
 33       0.854408998768
 34       0.038131959374
 35       0.021476260452
 36       0.000000013901
 37       0.009601918728
 38      -0.061388680471
 39       0.000000020260
 40       0.006303852399
 41      -0.000000006273
 42       0.000000000934
 43      -0.008998091392
 44      -0.021350113769
 45       0.129583009931
 46       1.384635858839
 47      -0.854405510325
 48       0.038131904794
 49      -0.021476193146
 50      -0.000000013502
 51       0.009603346838
 52       0.061388015707
 53      -0.000000020115
 54      -0.006303856630
 55      -0.000000006622
 56      -0.000000000784
 57       0.008998126894
 58      -0.021350147844
 Sym=     1a
 Ene= 4.19923382220401E-01
 Spin= Alpha
 Occup= 0.000000
  1       0.018336836306
  2       0.183174752072
  3       0.042338446693
  4       0.099722106979
  5      -0.000000212569
  6       0.141606775315
  7      -0.000000035540
  8      -0.000000606959
  9       0.185022332168
 10      -0.000000057688
 11      -0.000003186182
 12       0.278308417042
 13      -0.000000133599
 14       0.010109847297
 15      -0.000000000059
 16      -0.000000006429
 17      -0.014950881536
 18       0.000000072831
 19       0.021386094537
 20       0.000000000100
 21      -0.000000050262
 22       0.008009889594
 23      -0.000000316711
 24      -0.000000003128
 25       0.000000049058
 26      -0.003181782749
 27       0.000000003521
 28      -0.000000000066
 29      -0.000000023015
 30      -0.009845567974
 31      -0.120137667273
 32      -1.097853214414
 33       0.699098421455
 34       0.018184180715
 35       0.012609152049
 36       0.000000006591
 37      -0.280616306838
 38      -0.002316499396
 39       0.000000104417
 40       0.006705682674
 41      -0.000000000890
 42      -0.000000007896
 43       0.009872302166
 44      -0.000622313870
 45      -0.120138100215
 46      -1.097860370135
 47       0.699100630639
 48      -0.018184398770
 49       0.012609270008
 50       0.000000006560
 51       0.280615451824
 52      -0.002316608301
 53       0.000000099803
 54       0.006705737469
 55       0.000000001156
 56      -0.000000007706
 57       0.009872224860
 58       0.000622479109
 Sym=     1a
 Ene= 4.94715565244885E-01
 Spin= Alpha
 Occup= 0.000000
  1      -0.034092273942
  2      -0.109363684129
  3       0.026352469804
  4      -4.096653158786
  5      -0.000000150391
  6       0.262977045157
  7      -0.000000038667
  8      -0.000000120511
  9       0.157946748450
 10      -0.000000097036
 11       0.000000673376
 12      -2.456015816040
 13       0.000000102342
 14      -0.025234411581
 15       0.000000000242
 16      -0.000000022189
 17       0.002229847747
 18       0.000000019810
 19       0.244838471888
 20      -0.000000000823
 21       0.000000006153
 22      -0.070040317138
 23       0.000000158048
 24       0.000000003575
 25      -0.000000008187
 26       0.015458443974
 27      -0.000000001061
 28      -0.000000000324
 29       0.000000006253
 30       0.027475962459
 31      -0.021007132366
 32       2.135700199190
 33       0.390669202787
 34      -0.027157023274
 35      -0.014446406055
 36      -0.000000013200
 37      -0.737108752567
 38      -0.595625225176
 39       0.000000073688
 40      -0.038983833932
 41      -0.000000000204
 42       0.000000009292
 43       0.020828563292
 44       0.057122934024
 45      -0.021007317190
 46       2.135700336031
 47       0.390670787804
 48       0.027157015763
 49      -0.014446412931
 50      -0.000000012665
 51       0.737109430356
 52      -0.595625533434
 53       0.000000063997
 54      -0.038983852171
 55      -0.000000000375
 56       0.000000009513
 57       0.020828584489
 58      -0.057122982252
 Sym=     1a
 Ene= 5.83016939730854E-01
 Spin= Alpha
 Occup= 0.000000
  1      -0.000000161892
  2      -0.000000522845
  3      -0.000000159194
  4       0.000002414643
  5      -0.000000005945
  6       0.000000065437
  7       0.293744064975
  8       0.000000004458
  9       0.000000434300
 10       0.743779896940
 11       0.000000110047
 12       0.000000305738
 13      -1.097773786138
 14      -0.000000030944
 15       0.000000005506
 16       0.007381699493
 17      -0.000000006853
 18      -0.000000000463
 19      -0.000000102428
 20       0.000000035188
 21      -0.030861401999
 22       0.000000076400
 23       0.000000015639
 24       0.004910343812
 25      -0.000000001298
 26      -0.000000013489
 27      -0.001184083501
 28       0.000000012970
 29       0.000000000705
 30      -0.000000033341
 31       0.000000008962
 32      -0.000000899689
 33      -0.000000402407
 34       0.000000036852
 35       0.000000033108
 36       0.011539428727
 37       0.000000275604
 38       0.000000265235
 39      -0.059208110709
 40       0.000000042458
 41      -0.015456391995
 42      -0.012309553407
 43      -0.000000000347
 44      -0.000000061248
 45       0.000000001384
 46      -0.000000794138
 47      -0.000000291326
 48      -0.000000033480
 49       0.000000031011
 50       0.011539341010
 51      -0.000000219473
 52       0.000000219740
 53      -0.059206710674
 54       0.000000038745
 55       0.015456406030
 56      -0.012309593711
 57       0.000000001546
 58       0.000000055318
 Sym=     1a
 Ene= 6.22764202831150E-01
 Spin= Alpha
 Occup= 0.000000
  1       0.000000104985
  2       0.000000248753
  3       0.000000106377
  4      -0.000003783726
  5       0.294160359257
  6       0.000000010118
  7       0.000000022329
  8       0.040269338058
  9      -0.000000300570
 10       0.000000040055
 11      -2.920455195523
 12      -0.000001751721
 13      -0.000000031635
 14      -0.000000031705
 15      -0.000000014460
 16       0.000000000650
 17       0.000000027992
 18       0.025022640343
 19       0.000000148643
 20      -0.000000004996
 21      -0.000000000112
 22      -0.000000042977
 23      -0.410889491475
 24       0.000000000194
 25       0.026326815219
 26       0.000000019760
 27      -0.000000000196
 28      -0.000000005435
 29      -0.019597915790
 30       0.000000037774
 31      -0.040868715348
 32       1.553036641861
 33       1.494451047147
 34      -0.046721684190
 35      -0.035164316851
 36      -0.000000017664
 37      -0.804062912060
 38      -0.623047467237
 39       0.000000271959
 40      -0.046399980486
 41       0.000000002375
 42      -0.000000006597
 43       0.026320331022
 44       0.082517204991
 45       0.040868834314
 46      -1.553032322011
 47      -1.494450769962
 48      -0.046721580655
 49       0.035164213726
 50       0.000000018914
 51      -0.804061967400
 52       0.623046869432
 53      -0.000000267577
 54       0.046399890899
 55       0.000000003818
 56       0.000000005512
 57      -0.026320310514
 58       0.082517067953
 Sym=     1a
 Ene= 6.27641734435255E-01
 Spin= Alpha
 Occup= 0.000000
  1       0.024105308160
  2       0.141507653103
  3       0.026499494601
  4       1.077244047248
  5       0.000000005485
  6       0.036214518599
  7       0.000000015352
  8      -0.000000112366
  9       0.143315796571
 10       0.000000067837
 11      -0.000001032076
 12       1.545132121087
 13      -0.000000127709
 14       0.012045160054
 15      -0.000000000598
 16      -0.000000003286
 17       0.034699692861
 18       0.000000011822
 19      -0.027315917467
 20       0.000000000184
 21      -0.000000034611
 22      -0.121131988116
 23      -0.000000059187
 24      -0.000000004904
 25       0.000000011196
 26      -0.011109354854
 27      -0.000000008795
 28       0.000000000168
 29      -0.000000009577
 30       0.008740573697
 31       0.002658961852
 32      -1.150121709974
 33       0.220138059548
 34      -0.017078624428
 35       0.029415141819
 36       0.000000010326
 37       0.626204372456
 38      -0.596880156301
 39      -0.000000053921
 40       0.010373117275
 41      -0.000000011984
 42       0.000000011110
 43      -0.052336489237
 44       0.019592084781
 45       0.002658952600
 46      -1.150123431010
 47       0.220138143583
 48       0.017078579162
 49       0.029415158301
 50       0.000000009193
 51      -0.626204214010
 52      -0.596879361430
 53      -0.000000037201
 54       0.010373139618
 55       0.000000012147
 56       0.000000010080
 57      -0.052336480431
 58      -0.019592043398
 Sym=     1a
 Ene= 6.81643774182806E-01
 Spin= Alpha
 Occup= 0.000000
  1       0.000000000818
  2      -0.000000000382
  3      -0.000000004786
  4      -0.000000000536
  5       0.000000127486
  6       0.000000001454
  7      -0.000000267426
  8      -0.000000092249
  9       0.000000006352
 10      -0.000000667274
 11      -0.000000992902
 12      -0.000000020326
 13       0.000002479041
 14      -0.000000001148
 15      -0.026391011649
 16      -0.000000056258
 17      -0.000000001199
 18       0.000000006227
 19       0.000000001387
 20       0.007446432527
 21       0.000000047194
 22       0.000000002159
 23      -0.000000175146
 24      -0.000000019388
 25       0.000000025274
 26      -0.000000000077
 27      -0.000000001046
 28       0.014080236978
 29      -0.000000011930
 30      -0.000000000566
 31      -0.000000035813
 32       0.000000817657
 33       0.000000486252
 34      -0.000000017300
 35      -0.000000020279
 36       0.047963726045
 37      -0.000000482481
 38      -0.000000283055
 39      -0.828619184303
 40      -0.000000008541
 41       0.012588783132
 42       0.024409243990
 43       0.000000020550
 44       0.000000051908
 45       0.000000034378
 46      -0.000000797594
 47      -0.000000493037
 48      -0.000000018664
 49       0.000000021121
 50      -0.047963634108
 51      -0.000000466768
 52       0.000000292091
 53       0.828616543288
 54       0.000000009598
 55       0.012588661777
 56      -0.024409175759
 57      -0.000000019293
 58       0.000000052851
 Sym=     1a
 Ene= 7.76975154260242E-01
 Spin= Alpha
 Occup= 0.000000
  1      -0.000000049041
  2      -0.000000179990
  3      -0.000000067898
  4       0.000002789175
  5      -0.000000002027
  6      -0.000000034599
  7      -0.013382872245
  8      -0.000000002516
  9       0.000000293636
 10      -0.022887602990
 11       0.000000010842
 12       0.000000769054
 13      -1.174767152872
 14       0.000000003841
 15      -0.000000032912
 16       0.023441469340
 17       0.000000000749
 18      -0.000000000737
 19      -0.000000070461
 20      -0.000000047109
 21       0.023591355827
 22       0.000000074624
 23       0.000000002275
 24       0.015461931299
 25      -0.000000000040
 26      -0.000000025536
 27      -0.006228149894
 28       0.000000028558
 29       0.000000000155
 30      -0.000000025833
 31       0.000000043725
 32      -0.000001215536
 33      -0.000000290451
 34       0.000000020041
 35       0.000000023791
 36      -0.060226907178
 37       0.000000559469
 38       0.000000321166
 39       0.981659585831
 40       0.000000018240
 41      -0.040396803895
 42      -0.002658118744
 43      -0.000000008700
 44      -0.000000059436
 45       0.000000044170
 46      -0.000001195530
 47      -0.000000282793
 48      -0.000000019763
 49       0.000000023350
 50      -0.060227085137
 51      -0.000000548397
 52       0.000000312229
 53       0.981661841146
 54       0.000000018418
 55       0.040396832163
 56      -0.002658177219
 57      -0.000000008204
 58       0.000000058533
 Sym=     1a
 Ene= 9.22278980405498E-01
 Spin= Alpha
 Occup= 0.000000
  1       0.255417587674
  2       0.855887547244
  3       0.293569703034
  4      -7.023165619647
  5      -0.000000042945
  6      -0.049440274646
  7       0.000000112657
  8       0.000000307501
  9      -0.977899310261
 10       0.000000398395
 11       0.000001177411
 12      -1.765616799528
 13      -0.000000807016
 14      -0.010211642628
 15      -0.000000000347
 16       0.000000019659
 17       0.005402306511
 18      -0.000000019646
 19       0.216391997588
 20      -0.000000001509
 21       0.000000025486
 22      -0.172017713247
 23       0.000000239963
 24       0.000000018879
 25      -0.000000026537
 26       0.035285591407
 27      -0.000000002309
 28       0.000000000113
 29       0.000000012991
 30       0.077916649591
 31      -0.030403121788
 32       2.887958493836
 33       0.650839091994
 34      -0.079312756157
 35      -0.077927292709
 36      -0.000000011097
 37      -1.134412773613
 38      -0.707200061890
 39       0.000000258811
 40      -0.104114717484
 41      -0.000000019733
 42      -0.000000006692
 43       0.018755717424
 44       0.147228849938
 45      -0.030403158460
 46       2.887960491511
 47       0.650840268119
 48       0.079312772416
 49      -0.077927339435
 50      -0.000000011633
 51       1.134414202162
 52      -0.707200872178
 53       0.000000266814
 54      -0.104114769279
 55       0.000000019406
 56      -0.000000006777
 57       0.018755768577
 58      -0.147228975644
 Sym=     1a
 Ene= 1.01208281573388E+00
 Spin= Alpha
 Occup= 0.000000
  1      -0.000000050220
  2      -0.000000149245
  3      -0.000000049068
  4       0.000000300461
  5      -0.024493313652
  6      -0.000000017619
  7       0.000000000382
  8      -0.172389212595
  9      -0.000000021463
 10       0.000000000260
 11      -1.735835360916
 12      -0.000000164480
 13      -0.000000000327
 14       0.000000000286
 15      -0.000000000740
 16      -0.000000001604
 17      -0.000000016361
 18       0.003252368654
 19      -0.000000022808
 20       0.000000024222
 21       0.000000001557
 22       0.000000053809
 23      -0.069173880243
 24      -0.000000000036
 25       0.009047427180
 26      -0.000000000898
 27      -0.000000000009
 28       0.000000000128
 29       0.004346224151
 30      -0.000000017147
 31      -0.003957295208
 32       0.960470933007
 33       0.119034100290
 34      -0.057002594050
 35       0.046722919864
 36      -0.000000000748
 37       0.573978109858
 38      -1.069700768142
 39      -0.000000047016
 40      -0.011115612428
 41      -0.000000010370
 42       0.000000017232
 43      -0.009456558944
 44       0.013898435386
 45       0.003957225036
 46      -0.960471019574
 47      -0.119034170641
 48      -0.057002666272
 49      -0.046722954425
 50       0.000000000376
 51       0.573978533143
 52       1.069701214642
 53       0.000000046333
 54       0.011115599181
 55      -0.000000010101
 56      -0.000000016678
 57       0.009456604435
 58       0.013898515692
 Sym=     1a
 Ene= 1.28975090706443E+00
 Spin= Alpha
 Occup= 0.000000
  1       0.000001486287
  2       0.000004361940
  3       0.000001314418
  4       0.000012938137
  5       0.196572931218
  6       0.000001011779
  7       0.000000004158
  8       1.116967937306
  9       0.000003268804
 10       0.000000004938
 11       0.920139834939
 12       0.000002140599
 13       0.000000005933
 14       0.000000050250
 15      -0.000000021934
 16       0.000000000163
 17      -0.000000029127
 18      -0.005256708479
 19       0.000000947286
 20       0.000000001236
 21       0.000000001069
 22      -0.000000596794
 23      -0.069770903344
 24       0.000000000145
 25       0.003517555677
 26       0.000000123129
 27      -0.000000000109
 28       0.000000013903
 29      -0.004853330718
 30       0.000000247652
 31      -0.156415255372
 32      -1.303606610666
 33      -0.881092234154
 34      -0.060593426583
 35      -0.046294468276
 36       0.000000013142
 37       1.463241196657
 38       1.049456848337
 39      -0.000000067256
 40       0.038349690263
 41      -0.000000014244
 42      -0.000000006200
 43      -0.031976621236
 44      -0.080483238379
 45       0.156413763802
 46       1.303595661986
 47       0.881088287944
 48      -0.060592266300
 49       0.046293573319
 50      -0.000000012393
 51       1.463229200249
 52      -1.049447588558
 53       0.000000063549
 54      -0.038349718835
 55      -0.000000013554
 56       0.000000005639
 57       0.031976681261
 58      -0.080483509409
 Sym=     1a
 Ene= 1.31786999255079E+00
 Spin= Alpha
 Occup= 0.000000
  1       0.293932585672
  2       0.860119103055
  3       0.257672103669
  4       2.178129876359
  5      -0.000001042516
  6       0.188837735887
  7      -0.000000025994